TITLE = "dt=0.100000s, t=99.999046s, nu=0.000018, Lx=-1073741824, Ly=1073972510, Lz-1073741824, Nx=1073972510, Ny=-1073741824, Nz=1073972510 "
VARIABLES =X, Y, Z, I, J, K, U, V, W, T, DEN, IP 
ZONE F=POINT, I=22, J=22, K=22
0.000000	0.000000	0.000000	0	0	0	0.000000	0.000000	0.000000	0.000000	0.000000	0.000000
0.050833	0.000000	0.000000	1	0	0	0.000000	0.000000	0.000000	0.000000	0.000000	0.000000
0.152500	0.000000	0.000000	2	0	0	0.000000	0.000000	0.000000	0.000000	0.000000	0.000000
0.254167	0.000000	0.000000	3	0	0	0.000000	0.000000	0.000000	0.000000	0.000000	0.000000
0.355833	0.000000	0.000000	4	0	0	0.000000	0.000000	0.000000	0.000000	0.000000	0.000000
0.457500	0.000000	0.000000	5	0	0	0.000000	0.000000	0.000000	0.000000	0.000000	0.000000
0.559167	0.000000	0.000000	6	0	0	0.000000	0.000000	0.000000	0.000000	0.000000	0.000000
0.686250	0.000000	0.000000	7	0	0	0.000000	0.000000	0.000000	0.000000	0.000000	0.000000
0.838750	0.000000	0.000000	8	0	0	0.000000	0.000000	0.000000	0.000000	0.000000	0.000000
0.991250	0.000000	0.000000	9	0	0	0.000000	0.000000	0.000000	0.000000	0.000000	0.000000
1.143750	0.000000	0.000000	10	0	0	0.000000	0.000000	0.000000	0.000000	0.000000	0.000000
1.296250	0.000000	0.000000	11	0	0	0.000000	0.000000	0.000000	0.000000	0.000000	0.000000
1.448750	0.000000	0.000000	12	0	0	0.000000	0.000000	0.000000	0.000000	0.000000	0.000000
1.601250	0.000000	0.000000	13	0	0	0.000000	0.000000	0.000000	0.000000	0.000000	0.000000
1.753750	0.000000	0.000000	14	0	0	0.000000	0.000000	0.000000	0.000000	0.000000	0.000000
1.880833	0.000000	0.000000	15	0	0	0.000000	0.000000	0.000000	0.000000	0.000000	0.000000
1.982500	0.000000	0.000000	16	0	0	0.000000	0.000000	0.000000	0.000000	0.000000	0.000000
2.084167	0.000000	0.000000	17	0	0	0.000000	0.000000	0.000000	0.000000	0.000000	0.000000
2.185833	0.000000	0.000000	18	0	0	0.000000	0.000000	0.000000	0.000000	0.000000	0.000000
2.287500	0.000000	0.000000	19	0	0	0.000000	0.000000	0.000000	0.000000	0.000000	0.000000
2.389167	0.000000	0.000000	20	0	0	0.000000	0.000000	0.000000	0.000000	0.000000	0.000000
2.440000	0.000000	0.000000	21	0	0	0.000000	0.000000	0.000000	0.000000	0.000000	0.000000
0.000000	0.050833	0.000000	0	1	0	0.000000	0.000000	0.000000	0.000000	0.000000	0.000000
0.050833	0.050833	0.000000	1	1	0	0.000000	0.000000	0.000000	300.130005	0.000000	-0.002971
0.152500	0.050833	0.000000	2	1	0	0.000000	0.000000	0.000000	300.130005	0.000000	-0.002914
0.254167	0.050833	0.000000	3	1	0	0.000000	0.000000	0.000000	300.130005	0.000000	-0.002738
0.355833	0.050833	0.000000	4	1	0	0.000000	0.000000	0.000000	300.130005	0.000000	-0.002818
0.457500	0.050833	0.000000	5	1	0	0.000000	0.000000	0.000000	300.130005	0.000000	-0.003390
0.559167	0.050833	0.000000	6	1	0	0.000000	0.000000	0.000000	300.130005	0.000000	-0.004650
0.686250	0.050833	0.000000	7	1	0	0.000000	0.000000	0.000000	300.130005	0.000000	-0.006323
0.838750	0.050833	0.000000	8	1	0	0.000000	0.000000	0.000000	300.130005	0.000000	-0.007038
0.991250	0.050833	0.000000	9	1	0	0.000000	0.000000	0.000000	300.130005	0.000000	-0.005927
1.143750	0.050833	0.000000	10	1	0	0.000000	0.000000	0.000000	300.130005	0.000000	-0.004725
1.296250	0.050833	0.000000	11	1	0	0.000000	0.000000	0.000000	300.130005	0.000000	-0.006495
1.448750	0.050833	0.000000	12	1	0	0.000000	0.000000	0.000000	300.130005	0.000000	-0.008284
1.601250	0.050833	0.000000	13	1	0	0.000000	0.000000	0.000000	300.130005	0.000000	-0.007537
1.753750	0.050833	0.000000	14	1	0	0.000000	0.000000	0.000000	300.130005	0.000000	-0.004162
1.880833	0.050833	0.000000	15	1	0	0.000000	0.000000	0.000000	300.130005	0.000000	-0.001053
1.982500	0.050833	0.000000	16	1	0	0.000000	0.000000	0.000000	300.130005	0.000000	-0.000392
2.084167	0.050833	0.000000	17	1	0	0.000000	0.000000	0.000000	300.130005	0.000000	-0.000167
2.185833	0.050833	0.000000	18	1	0	0.000000	0.000000	0.000000	300.130005	0.000000	0.000252
2.287500	0.050833	0.000000	19	1	0	0.000000	0.000000	0.000000	300.130005	0.000000	0.001131
2.389167	0.050833	0.000000	20	1	0	0.000000	0.000000	0.000000	300.130005	0.000000	0.001346
2.440000	0.050833	0.000000	21	1	0	0.000000	0.000000	0.000000	0.000000	0.000000	0.000000
0.000000	0.152500	0.000000	0	2	0	0.000000	0.000000	0.000000	0.000000	0.000000	0.000000
0.050833	0.152500	0.000000	1	2	0	0.000000	0.000000	0.000000	300.130005	0.000000	-0.002653
0.152500	0.152500	0.000000	2	2	0	0.000000	0.000000	0.000000	300.130005	0.000000	-0.002918
0.254167	0.152500	0.000000	3	2	0	0.000000	0.000000	0.000000	300.130005	0.000000	-0.003119
0.355833	0.152500	0.000000	4	2	0	0.000000	0.000000	0.000000	300.130005	0.000000	-0.003424
0.457500	0.152500	0.000000	5	2	0	0.000000	0.000000	0.000000	300.130005	0.000000	-0.004206
0.559167	0.152500	0.000000	6	2	0	0.000000	0.000000	0.000000	300.130005	0.000000	-0.005798
0.686250	0.152500	0.000000	7	2	0	0.000000	0.000000	0.000000	300.130005	0.000000	-0.007445
0.838750	0.152500	0.000000	8	2	0	0.000000	0.000000	0.000000	300.130005	0.000000	-0.007632
0.991250	0.152500	0.000000	9	2	0	0.000000	0.000000	0.000000	300.130005	0.000000	-0.006070
1.143750	0.152500	0.000000	10	2	0	0.000000	0.000000	0.000000	300.130005	0.000000	-0.004720
1.296250	0.152500	0.000000	11	2	0	0.000000	0.000000	0.000000	300.130005	0.000000	-0.006990
1.448750	0.152500	0.000000	12	2	0	0.000000	0.000000	0.000000	300.130005	0.000000	-0.009258
1.601250	0.152500	0.000000	13	2	0	0.000000	0.000000	0.000000	300.130005	0.000000	-0.008571
1.753750	0.152500	0.000000	14	2	0	0.000000	0.000000	0.000000	300.130005	0.000000	-0.005321
1.880833	0.152500	0.000000	15	2	0	0.000000	0.000000	0.000000	300.130005	0.000000	-0.001292
1.982500	0.152500	0.000000	16	2	0	0.000000	0.000000	0.000000	300.130005	0.000000	0.000047
2.084167	0.152500	0.000000	17	2	0	0.000000	0.000000	0.000000	300.130005	0.000000	0.000502
2.185833	0.152500	0.000000	18	2	0	0.000000	0.000000	0.000000	300.130005	0.000000	0.000746
2.287500	0.152500	0.000000	19	2	0	0.000000	0.000000	0.000000	300.130005	0.000000	0.000411
2.389167	0.152500	0.000000	20	2	0	0.000000	0.000000	0.000000	300.130005	0.000000	0.000153
2.440000	0.152500	0.000000	21	2	0	0.000000	0.000000	0.000000	0.000000	0.000000	0.000000
0.000000	0.254167	0.000000	0	3	0	0.000000	0.000000	0.000000	0.000000	0.000000	0.000000
0.050833	0.254167	0.000000	1	3	0	0.000000	0.000000	0.000000	300.130005	0.000000	-0.001886
0.152500	0.254167	0.000000	2	3	0	0.000000	0.000000	0.000000	300.130005	0.000000	-0.001907
0.254167	0.254167	0.000000	3	3	0	0.000000	0.000000	0.000000	300.130005	0.000000	-0.001929
0.355833	0.254167	0.000000	4	3	0	0.000000	0.000000	0.000000	300.130005	0.000000	-0.002159
0.457500	0.254167	0.000000	5	3	0	0.000000	0.000000	0.000000	300.130005	0.000000	-0.002956
0.559167	0.254167	0.000000	6	3	0	0.000000	0.000000	0.000000	300.130005	0.000000	-0.005413
0.686250	0.254167	0.000000	7	3	0	0.000000	0.000000	0.000000	300.130005	0.000000	-0.007732
0.838750	0.254167	0.000000	8	3	0	0.000000	0.000000	0.000000	300.130005	0.000000	-0.008553
0.991250	0.254167	0.000000	9	3	0	0.000000	0.000000	0.000000	300.130005	0.000000	-0.007360
1.143750	0.254167	0.000000	10	3	0	0.000000	0.000000	0.000000	300.130005	0.000000	-0.006569
1.296250	0.254167	0.000000	11	3	0	0.000000	0.000000	0.000000	300.130005	0.000000	-0.008534
1.448750	0.254167	0.000000	12	3	0	0.000000	0.000000	0.000000	300.130005	0.000000	-0.010606
1.601250	0.254167	0.000000	13	3	0	0.000000	0.000000	0.000000	300.130005	0.000000	-0.009971
1.753750	0.254167	0.000000	14	3	0	0.000000	0.000000	0.000000	300.130005	0.000000	-0.007634
1.880833	0.254167	0.000000	15	3	0	0.000000	0.000000	0.000000	300.130005	0.000000	-0.003806
1.982500	0.254167	0.000000	16	3	0	0.000000	0.000000	0.000000	300.130005	0.000000	-0.002377
2.084167	0.254167	0.000000	17	3	0	0.000000	0.000000	0.000000	300.130005	0.000000	-0.001509
2.185833	0.254167	0.000000	18	3	0	0.000000	0.000000	0.000000	300.130005	0.000000	-0.000473
2.287500	0.254167	0.000000	19	3	0	0.000000	0.000000	0.000000	300.130005	0.000000	-0.000032
2.389167	0.254167	0.000000	20	3	0	0.000000	0.000000	0.000000	300.130005	0.000000	-0.000419
2.440000	0.254167	0.000000	21	3	0	0.000000	0.000000	0.000000	0.000000	0.000000	0.000000
0.000000	0.355833	0.000000	0	4	0	0.000000	0.000000	0.000000	0.000000	0.000000	0.000000
0.050833	0.355833	0.000000	1	4	0	0.000000	0.000000	0.000000	300.130005	0.000000	-0.001964
0.152500	0.355833	0.000000	2	4	0	0.000000	0.000000	0.000000	300.130005	0.000000	-0.002025
0.254167	0.355833	0.000000	3	4	0	0.000000	0.000000	0.000000	300.130005	0.000000	-0.002413
0.355833	0.355833	0.000000	4	4	0	0.000000	0.000000	0.000000	300.130005	0.000000	-0.003170
0.457500	0.355833	0.000000	5	4	0	0.000000	0.000000	0.000000	300.130005	0.000000	-0.004611
0.559167	0.355833	0.000000	6	4	0	0.000000	0.000000	0.000000	300.130005	0.000000	-0.007651
0.686250	0.355833	0.000000	7	4	0	0.000000	0.000000	0.000000	300.130005	0.000000	-0.009647
0.838750	0.355833	0.000000	8	4	0	0.000000	0.000000	0.000000	300.130005	0.000000	-0.009734
0.991250	0.355833	0.000000	9	4	0	0.000000	0.000000	0.000000	300.130005	0.000000	-0.008237
1.143750	0.355833	0.000000	10	4	0	0.000000	0.000000	0.000000	300.130005	0.000000	-0.007350
1.296250	0.355833	0.000000	11	4	0	0.000000	0.000000	0.000000	300.130005	0.000000	-0.008908
1.448750	0.355833	0.000000	12	4	0	0.000000	0.000000	0.000000	300.130005	0.000000	-0.010857
1.601250	0.355833	0.000000	13	4	0	0.000000	0.000000	0.000000	300.130005	0.000000	-0.010239
1.753750	0.355833	0.000000	14	4	0	0.000000	0.000000	0.000000	300.130005	0.000000	-0.008902
1.880833	0.355833	0.000000	15	4	0	0.000000	0.000000	0.000000	300.130005	0.000000	-0.006050
1.982500	0.355833	0.000000	16	4	0	0.000000	0.000000	0.000000	300.130005	0.000000	-0.004941
2.084167	0.355833	0.000000	17	4	0	0.000000	0.000000	0.000000	300.130005	0.000000	-0.004278
2.185833	0.355833	0.000000	18	4	0	0.000000	0.000000	0.000000	300.130005	0.000000	-0.003095
2.287500	0.355833	0.000000	19	4	0	0.000000	0.000000	0.000000	300.130005	0.000000	-0.001995
2.389167	0.355833	0.000000	20	4	0	0.000000	0.000000	0.000000	300.130005	0.000000	-0.001873
2.440000	0.355833	0.000000	21	4	0	0.000000	0.000000	0.000000	0.000000	0.000000	0.000000
0.000000	0.457500	0.000000	0	5	0	0.000000	0.000000	0.000000	0.000000	0.000000	0.000000
0.050833	0.457500	0.000000	1	5	0	0.000000	0.000000	0.000000	300.130005	0.000000	-0.003377
0.152500	0.457500	0.000000	2	5	0	0.000000	0.000000	0.000000	300.130005	0.000000	-0.003240
0.254167	0.457500	0.000000	3	5	0	0.000000	0.000000	0.000000	300.130005	0.000000	-0.003709
0.355833	0.457500	0.000000	4	5	0	0.000000	0.000000	0.000000	300.130005	0.000000	-0.004830
0.457500	0.457500	0.000000	5	5	0	0.000000	0.000000	0.000000	300.130005	0.000000	-0.006482
0.559167	0.457500	0.000000	6	5	0	0.000000	0.000000	0.000000	300.130005	0.000000	-0.009004
0.686250	0.457500	0.000000	7	5	0	0.000000	0.000000	0.000000	300.130005	0.000000	-0.009812
0.838750	0.457500	0.000000	8	5	0	0.000000	0.000000	0.000000	300.130005	0.000000	-0.010183
0.991250	0.457500	0.000000	9	5	0	0.000000	0.000000	0.000000	300.130005	0.000000	-0.008199
1.143750	0.457500	0.000000	10	5	0	0.000000	0.000000	0.000000	300.130005	0.000000	-0.006720
1.296250	0.457500	0.000000	11	5	0	0.000000	0.000000	0.000000	300.130005	0.000000	-0.008106
1.448750	0.457500	0.000000	12	5	0	0.000000	0.000000	0.000000	300.130005	0.000000	-0.010014
1.601250	0.457500	0.000000	13	5	0	0.000000	0.000000	0.000000	300.130005	0.000000	-0.009707
1.753750	0.457500	0.000000	14	5	0	0.000000	0.000000	0.000000	300.130005	0.000000	-0.008864
1.880833	0.457500	0.000000	15	5	0	0.000000	0.000000	0.000000	300.130005	0.000000	-0.007321
1.982500	0.457500	0.000000	16	5	0	0.000000	0.000000	0.000000	300.130005	0.000000	-0.006643
2.084167	0.457500	0.000000	17	5	0	0.000000	0.000000	0.000000	300.130005	0.000000	-0.006303
2.185833	0.457500	0.000000	18	5	0	0.000000	0.000000	0.000000	300.130005	0.000000	-0.005444
2.287500	0.457500	0.000000	19	5	0	0.000000	0.000000	0.000000	300.130005	0.000000	-0.004225
2.389167	0.457500	0.000000	20	5	0	0.000000	0.000000	0.000000	300.130005	0.000000	-0.003834
2.440000	0.457500	0.000000	21	5	0	0.000000	0.000000	0.000000	0.000000	0.000000	0.000000
0.000000	0.559167	0.000000	0	6	0	0.000000	0.000000	0.000000	0.000000	0.000000	0.000000
0.050833	0.559167	0.000000	1	6	0	0.000000	0.000000	0.000000	300.130005	0.000000	-0.004968
0.152500	0.559167	0.000000	2	6	0	0.000000	0.000000	0.000000	300.130005	0.000000	-0.004781
0.254167	0.559167	0.000000	3	6	0	0.000000	0.000000	0.000000	300.130005	0.000000	-0.005236
0.355833	0.559167	0.000000	4	6	0	0.000000	0.000000	0.000000	300.130005	0.000000	-0.006385
0.457500	0.559167	0.000000	5	6	0	0.000000	0.000000	0.000000	300.130005	0.000000	-0.007703
0.559167	0.559167	0.000000	6	6	0	0.000000	0.000000	0.000000	300.130005	0.000000	-0.009299
0.686250	0.559167	0.000000	7	6	0	0.000000	0.000000	0.000000	300.130005	0.000000	-0.009575
0.838750	0.559167	0.000000	8	6	0	0.000000	0.000000	0.000000	300.130005	0.000000	-0.009812
0.991250	0.559167	0.000000	9	6	0	0.000000	0.000000	0.000000	300.130005	0.000000	-0.008136
1.143750	0.559167	0.000000	10	6	0	0.000000	0.000000	0.000000	300.130005	0.000000	-0.006394
1.296250	0.559167	0.000000	11	6	0	0.000000	0.000000	0.000000	300.130005	0.000000	-0.007723
1.448750	0.559167	0.000000	12	6	0	0.000000	0.000000	0.000000	300.130005	0.000000	-0.009457
1.601250	0.559167	0.000000	13	6	0	0.000000	0.000000	0.000000	300.130005	0.000000	-0.009410
1.753750	0.559167	0.000000	14	6	0	0.000000	0.000000	0.000000	300.130005	0.000000	-0.008829
1.880833	0.559167	0.000000	15	6	0	0.000000	0.000000	0.000000	300.130005	0.000000	-0.007900
1.982500	0.559167	0.000000	16	6	0	0.000000	0.000000	0.000000	300.130005	0.000000	-0.007501
2.084167	0.559167	0.000000	17	6	0	0.000000	0.000000	0.000000	300.130005	0.000000	-0.007310
2.185833	0.559167	0.000000	18	6	0	0.000000	0.000000	0.000000	300.130005	0.000000	-0.006880
2.287500	0.559167	0.000000	19	6	0	0.000000	0.000000	0.000000	300.130005	0.000000	-0.005987
2.389167	0.559167	0.000000	20	6	0	0.000000	0.000000	0.000000	300.130005	0.000000	-0.005598
2.440000	0.559167	0.000000	21	6	0	0.000000	0.000000	0.000000	0.000000	0.000000	0.000000
0.000000	0.686250	0.000000	0	7	0	0.000000	0.000000	0.000000	0.000000	0.000000	0.000000
0.050833	0.686250	0.000000	1	7	0	0.000000	0.000000	0.000000	300.130005	0.000000	-0.006504
0.152500	0.686250	0.000000	2	7	0	0.000000	0.000000	0.000000	300.130005	0.000000	-0.006322
0.254167	0.686250	0.000000	3	7	0	0.000000	0.000000	0.000000	300.130005	0.000000	-0.006629
0.355833	0.686250	0.000000	4	7	0	0.000000	0.000000	0.000000	300.130005	0.000000	-0.007399
0.457500	0.686250	0.000000	5	7	0	0.000000	0.000000	0.000000	300.130005	0.000000	-0.007661
0.559167	0.686250	0.000000	6	7	0	0.000000	0.000000	0.000000	300.130005	0.000000	-0.007696
0.686250	0.686250	0.000000	7	7	0	0.000000	0.000000	0.000000	300.130005	0.000000	-0.007693
0.838750	0.686250	0.000000	8	7	0	0.000000	0.000000	0.000000	300.130005	0.000000	-0.009826
0.991250	0.686250	0.000000	9	7	0	0.000000	0.000000	0.000000	300.130005	0.000000	-0.008152
1.143750	0.686250	0.000000	10	7	0	0.000000	0.000000	0.000000	300.130005	0.000000	-0.006404
1.296250	0.686250	0.000000	11	7	0	0.000000	0.000000	0.000000	300.130005	0.000000	-0.007732
1.448750	0.686250	0.000000	12	7	0	0.000000	0.000000	0.000000	300.130005	0.000000	-0.009466
1.601250	0.686250	0.000000	13	7	0	0.000000	0.000000	0.000000	300.130005	0.000000	-0.009418
1.753750	0.686250	0.000000	14	7	0	0.000000	0.000000	0.000000	300.130005	0.000000	-0.007793
1.880833	0.686250	0.000000	15	7	0	0.000000	0.000000	0.000000	300.130005	0.000000	-0.007792
1.982500	0.686250	0.000000	16	7	0	0.000000	0.000000	0.000000	300.130005	0.000000	-0.007875
2.084167	0.686250	0.000000	17	7	0	0.000000	0.000000	0.000000	300.130005	0.000000	-0.007808
2.185833	0.686250	0.000000	18	7	0	0.000000	0.000000	0.000000	300.130005	0.000000	-0.007683
2.287500	0.686250	0.000000	19	7	0	0.000000	0.000000	0.000000	300.130005	0.000000	-0.007194
2.389167	0.686250	0.000000	20	7	0	0.000000	0.000000	0.000000	300.130005	0.000000	-0.006952
2.440000	0.686250	0.000000	21	7	0	0.000000	0.000000	0.000000	0.000000	0.000000	0.000000
0.000000	0.838750	0.000000	0	8	0	0.000000	0.000000	0.000000	0.000000	0.000000	0.000000
0.050833	0.838750	0.000000	1	8	0	0.000000	0.000000	0.000000	300.130005	0.000000	-0.007789
0.152500	0.838750	0.000000	2	8	0	0.000000	0.000000	0.000000	300.130005	0.000000	-0.007652
0.254167	0.838750	0.000000	3	8	0	0.000000	0.000000	0.000000	300.130005	0.000000	-0.007743
0.355833	0.838750	0.000000	4	8	0	0.000000	0.000000	0.000000	300.130005	0.000000	-0.008081
0.457500	0.838750	0.000000	5	8	0	0.000000	0.000000	0.000000	300.130005	0.000000	-0.008169
0.559167	0.838750	0.000000	6	8	0	0.000000	0.000000	0.000000	300.130005	0.000000	-0.008166
0.686250	0.838750	0.000000	7	8	0	0.000000	0.000000	0.000000	300.130005	0.000000	-0.008165
0.838750	0.838750	0.000000	8	8	0	0.000000	0.000000	0.000000	300.130005	0.000000	0.000000
0.991250	0.838750	0.000000	9	8	0	0.000000	0.000000	0.000000	300.130005	0.000000	0.000000
1.143750	0.838750	0.000000	10	8	0	0.000000	0.000000	0.000000	300.130005	0.000000	0.000000
1.296250	0.838750	0.000000	11	8	0	0.000000	0.000000	0.000000	300.130005	0.000000	0.000000
1.448750	0.838750	0.000000	12	8	0	0.000000	0.000000	0.000000	300.130005	0.000000	0.000000
1.601250	0.838750	0.000000	13	8	0	0.000000	0.000000	0.000000	300.130005	0.000000	0.000000
1.753750	0.838750	0.000000	14	8	0	0.000000	0.000000	0.000000	300.130005	0.000000	-0.007942
1.880833	0.838750	0.000000	15	8	0	0.000000	0.000000	0.000000	300.130005	0.000000	-0.007943
1.982500	0.838750	0.000000	16	8	0	0.000000	0.000000	0.000000	300.130005	0.000000	-0.008119
2.084167	0.838750	0.000000	17	8	0	0.000000	0.000000	0.000000	300.130005	0.000000	-0.008066
2.185833	0.838750	0.000000	18	8	0	0.000000	0.000000	0.000000	300.130005	0.000000	-0.008089
2.287500	0.838750	0.000000	19	8	0	0.000000	0.000000	0.000000	300.130005	0.000000	-0.007836
2.389167	0.838750	0.000000	20	8	0	0.000000	0.000000	0.000000	300.130005	0.000000	-0.007717
2.440000	0.838750	0.000000	21	8	0	0.000000	0.000000	0.000000	0.000000	0.000000	0.000000
0.000000	0.991250	0.000000	0	9	0	0.000000	0.000000	0.000000	0.000000	0.000000	0.000000
0.050833	0.991250	0.000000	1	9	0	0.000000	0.000000	0.000000	300.130005	0.000000	-0.008581
0.152500	0.991250	0.000000	2	9	0	0.000000	0.000000	0.000000	300.130005	0.000000	-0.008509
0.254167	0.991250	0.000000	3	9	0	0.000000	0.000000	0.000000	300.130005	0.000000	-0.008253
0.355833	0.991250	0.000000	4	9	0	0.000000	0.000000	0.000000	300.130005	0.000000	-0.008348
0.457500	0.991250	0.000000	5	9	0	0.000000	0.000000	0.000000	300.130005	0.000000	-0.008499
0.559167	0.991250	0.000000	6	9	0	0.000000	0.000000	0.000000	300.130005	0.000000	-0.008491
0.686250	0.991250	0.000000	7	9	0	0.000000	0.000000	0.000000	300.130005	0.000000	-0.008492
0.838750	0.991250	0.000000	8	9	0	0.000000	0.000000	0.000000	300.130005	0.000000	0.000000
0.991250	0.991250	0.000000	9	9	0	0.000000	0.000000	0.000000	300.130005	0.000000	0.000000
1.143750	0.991250	0.000000	10	9	0	0.000000	0.000000	0.000000	300.130005	0.000000	0.000000
1.296250	0.991250	0.000000	11	9	0	0.000000	0.000000	0.000000	300.130005	0.000000	0.000000
1.448750	0.991250	0.000000	12	9	0	0.000000	0.000000	0.000000	300.130005	0.000000	0.000000
1.601250	0.991250	0.000000	13	9	0	0.000000	0.000000	0.000000	300.130005	0.000000	0.000000
1.753750	0.991250	0.000000	14	9	0	0.000000	0.000000	0.000000	300.130005	0.000000	-0.007986
1.880833	0.991250	0.000000	15	9	0	0.000000	0.000000	0.000000	300.130005	0.000000	-0.007989
1.982500	0.991250	0.000000	16	9	0	0.000000	0.000000	0.000000	300.130005	0.000000	-0.008211
2.084167	0.991250	0.000000	17	9	0	0.000000	0.000000	0.000000	300.130005	0.000000	-0.008129
2.185833	0.991250	0.000000	18	9	0	0.000000	0.000000	0.000000	300.130005	0.000000	-0.008226
2.287500	0.991250	0.000000	19	9	0	0.000000	0.000000	0.000000	300.130005	0.000000	-0.008057
2.389167	0.991250	0.000000	20	9	0	0.000000	0.000000	0.000000	300.130005	0.000000	-0.007993
2.440000	0.991250	0.000000	21	9	0	0.000000	0.000000	0.000000	0.000000	0.000000	0.000000
0.000000	1.143750	0.000000	0	10	0	0.000000	0.000000	0.000000	0.000000	0.000000	0.000000
0.050833	1.143750	0.000000	1	10	0	0.000000	0.000000	0.000000	300.130005	0.000000	-0.008962
0.152500	1.143750	0.000000	2	10	0	0.000000	0.000000	0.000000	300.130005	0.000000	-0.008973
0.254167	1.143750	0.000000	3	10	0	0.000000	0.000000	0.000000	300.130005	0.000000	-0.008354
0.355833	1.143750	0.000000	4	10	0	0.000000	0.000000	0.000000	300.130005	0.000000	-0.008340
0.457500	1.143750	0.000000	5	10	0	0.000000	0.000000	0.000000	300.130005	0.000000	-0.008599
0.559167	1.143750	0.000000	6	10	0	0.000000	0.000000	0.000000	300.130005	0.000000	-0.008579
0.686250	1.143750	0.000000	7	10	0	0.000000	0.000000	0.000000	300.130005	0.000000	-0.008581
0.838750	1.143750	0.000000	8	10	0	0.000000	0.000000	0.000000	300.130005	0.000000	0.000000
0.991250	1.143750	0.000000	9	10	0	0.000000	0.000000	0.000000	300.130005	0.000000	0.000000
1.143750	1.143750	0.000000	10	10	0	0.000000	0.000000	0.000000	300.130005	0.000000	0.000000
1.296250	1.143750	0.000000	11	10	0	0.000000	0.000000	0.000000	300.130005	0.000000	0.000000
1.448750	1.143750	0.000000	12	10	0	0.000000	0.000000	0.000000	300.130005	0.000000	0.000000
1.601250	1.143750	0.000000	13	10	0	0.000000	0.000000	0.000000	300.130005	0.000000	0.000000
1.753750	1.143750	0.000000	14	10	0	0.000000	0.000000	0.000000	300.130005	0.000000	-0.007841
1.880833	1.143750	0.000000	15	10	0	0.000000	0.000000	0.000000	300.130005	0.000000	-0.007846
1.982500	1.143750	0.000000	16	10	0	0.000000	0.000000	0.000000	300.130005	0.000000	-0.008114
2.084167	1.143750	0.000000	17	10	0	0.000000	0.000000	0.000000	300.130005	0.000000	-0.007964
2.185833	1.143750	0.000000	18	10	0	0.000000	0.000000	0.000000	300.130005	0.000000	-0.008131
2.287500	1.143750	0.000000	19	10	0	0.000000	0.000000	0.000000	300.130005	0.000000	-0.007986
2.389167	1.143750	0.000000	20	10	0	0.000000	0.000000	0.000000	300.130005	0.000000	-0.007944
2.440000	1.143750	0.000000	21	10	0	0.000000	0.000000	0.000000	0.000000	0.000000	0.000000
0.000000	1.296250	0.000000	0	11	0	0.000000	0.000000	0.000000	0.000000	0.000000	0.000000
0.050833	1.296250	0.000000	1	11	0	0.000000	0.000000	0.000000	300.130005	0.000000	-0.008972
0.152500	1.296250	0.000000	2	11	0	0.000000	0.000000	0.000000	300.130005	0.000000	-0.009051
0.254167	1.296250	0.000000	3	11	0	0.000000	0.000000	0.000000	300.130005	0.000000	-0.008187
0.355833	1.296250	0.000000	4	11	0	0.000000	0.000000	0.000000	300.130005	0.000000	-0.008100
0.457500	1.296250	0.000000	5	11	0	0.000000	0.000000	0.000000	300.130005	0.000000	-0.008491
0.559167	1.296250	0.000000	6	11	0	0.000000	0.000000	0.000000	300.130005	0.000000	-0.008451
0.686250	1.296250	0.000000	7	11	0	0.000000	0.000000	0.000000	300.130005	0.000000	-0.008449
0.838750	1.296250	0.000000	8	11	0	0.000000	0.000000	0.000000	300.130005	0.000000	0.000000
0.991250	1.296250	0.000000	9	11	0	0.000000	0.000000	0.000000	300.130005	0.000000	0.000000
1.143750	1.296250	0.000000	10	11	0	0.000000	0.000000	0.000000	300.130005	0.000000	0.000000
1.296250	1.296250	0.000000	11	11	0	0.000000	0.000000	0.000000	300.130005	0.000000	0.000000
1.448750	1.296250	0.000000	12	11	0	0.000000	0.000000	0.000000	300.130005	0.000000	0.000000
1.601250	1.296250	0.000000	13	11	0	0.000000	0.000000	0.000000	300.130005	0.000000	0.000000
1.753750	1.296250	0.000000	14	11	0	0.000000	0.000000	0.000000	300.130005	0.000000	-0.007407
1.880833	1.296250	0.000000	15	11	0	0.000000	0.000000	0.000000	300.130005	0.000000	-0.007416
1.982500	1.296250	0.000000	16	11	0	0.000000	0.000000	0.000000	300.130005	0.000000	-0.007737
2.084167	1.296250	0.000000	17	11	0	0.000000	0.000000	0.000000	300.130005	0.000000	-0.007461
2.185833	1.296250	0.000000	18	11	0	0.000000	0.000000	0.000000	300.130005	0.000000	-0.007732
2.287500	1.296250	0.000000	19	11	0	0.000000	0.000000	0.000000	300.130005	0.000000	-0.007593
2.389167	1.296250	0.000000	20	11	0	0.000000	0.000000	0.000000	300.130005	0.000000	-0.007575
2.440000	1.296250	0.000000	21	11	0	0.000000	0.000000	0.000000	0.000000	0.000000	0.000000
0.000000	1.448750	0.000000	0	12	0	0.000000	0.000000	0.000000	0.000000	0.000000	0.000000
0.050833	1.448750	0.000000	1	12	0	0.000000	0.000000	0.000000	300.130005	0.000000	-0.008569
0.152500	1.448750	0.000000	2	12	0	0.000000	0.000000	0.000000	300.130005	0.000000	-0.008701
0.254167	1.448750	0.000000	3	12	0	0.000000	0.000000	0.000000	300.130005	0.000000	-0.007686
0.355833	1.448750	0.000000	4	12	0	0.000000	0.000000	0.000000	300.130005	0.000000	-0.007494
0.457500	1.448750	0.000000	5	12	0	0.000000	0.000000	0.000000	300.130005	0.000000	-0.008082
0.559167	1.448750	0.000000	6	12	0	0.000000	0.000000	0.000000	300.130005	0.000000	-0.008002
0.686250	1.448750	0.000000	7	12	0	0.000000	0.000000	0.000000	300.130005	0.000000	-0.007996
0.838750	1.448750	0.000000	8	12	0	0.000000	0.000000	0.000000	300.130005	0.000000	0.000000
0.991250	1.448750	0.000000	9	12	0	0.000000	0.000000	0.000000	300.130005	0.000000	0.000000
1.143750	1.448750	0.000000	10	12	0	0.000000	0.000000	0.000000	300.130005	0.000000	0.000000
1.296250	1.448750	0.000000	11	12	0	0.000000	0.000000	0.000000	300.130005	0.000000	0.000000
1.448750	1.448750	0.000000	12	12	0	0.000000	0.000000	0.000000	300.130005	0.000000	0.000000
1.601250	1.448750	0.000000	13	12	0	0.000000	0.000000	0.000000	300.130005	0.000000	0.000000
1.753750	1.448750	0.000000	14	12	0	0.000000	0.000000	0.000000	300.130005	0.000000	-0.006453
1.880833	1.448750	0.000000	15	12	0	0.000000	0.000000	0.000000	300.130005	0.000000	-0.006468
1.982500	1.448750	0.000000	16	12	0	0.000000	0.000000	0.000000	300.130005	0.000000	-0.006852
2.084167	1.448750	0.000000	17	12	0	0.000000	0.000000	0.000000	300.130005	0.000000	-0.006358
2.185833	1.448750	0.000000	18	12	0	0.000000	0.000000	0.000000	300.130005	0.000000	-0.006830
2.287500	1.448750	0.000000	19	12	0	0.000000	0.000000	0.000000	300.130005	0.000000	-0.006719
2.389167	1.448750	0.000000	20	12	0	0.000000	0.000000	0.000000	300.130005	0.000000	-0.006767
2.440000	1.448750	0.000000	21	12	0	0.000000	0.000000	0.000000	0.000000	0.000000	0.000000
0.000000	1.601250	0.000000	0	13	0	0.000000	0.000000	0.000000	0.000000	0.000000	0.000000
0.050833	1.601250	0.000000	1	13	0	0.000000	0.000000	0.000000	300.130005	0.000000	-0.007544
0.152500	1.601250	0.000000	2	13	0	0.000000	0.000000	0.000000	300.130005	0.000000	-0.007679
0.254167	1.601250	0.000000	3	13	0	0.000000	0.000000	0.000000	300.130005	0.000000	-0.006447
0.355833	1.601250	0.000000	4	13	0	0.000000	0.000000	0.000000	300.130005	0.000000	-0.005942
0.457500	1.601250	0.000000	5	13	0	0.000000	0.000000	0.000000	300.130005	0.000000	-0.006834
0.559167	1.601250	0.000000	6	13	0	0.000000	0.000000	0.000000	300.130005	0.000000	-0.006643
0.686250	1.601250	0.000000	7	13	0	0.000000	0.000000	0.000000	300.130005	0.000000	-0.006625
0.838750	1.601250	0.000000	8	13	0	0.000000	0.000000	0.000000	300.130005	0.000000	0.000000
0.991250	1.601250	0.000000	9	13	0	0.000000	0.000000	0.000000	300.130005	0.000000	0.000000
1.143750	1.601250	0.000000	10	13	0	0.000000	0.000000	0.000000	300.130005	0.000000	0.000000
1.296250	1.601250	0.000000	11	13	0	0.000000	0.000000	0.000000	300.130005	0.000000	0.000000
1.448750	1.601250	0.000000	12	13	0	0.000000	0.000000	0.000000	300.130005	0.000000	0.000000
1.601250	1.601250	0.000000	13	13	0	0.000000	0.000000	0.000000	300.130005	0.000000	0.000000
1.753750	1.601250	0.000000	14	13	0	0.000000	0.000000	0.000000	300.130005	0.000000	-0.004282
1.880833	1.601250	0.000000	15	13	0	0.000000	0.000000	0.000000	300.130005	0.000000	-0.004314
1.982500	1.601250	0.000000	16	13	0	0.000000	0.000000	0.000000	300.130005	0.000000	-0.004845
2.084167	1.601250	0.000000	17	13	0	0.000000	0.000000	0.000000	300.130005	0.000000	-0.003974
2.185833	1.601250	0.000000	18	13	0	0.000000	0.000000	0.000000	300.130005	0.000000	-0.004931
2.287500	1.601250	0.000000	19	13	0	0.000000	0.000000	0.000000	300.130005	0.000000	-0.004988
2.389167	1.601250	0.000000	20	13	0	0.000000	0.000000	0.000000	300.130005	0.000000	-0.005248
2.440000	1.601250	0.000000	21	13	0	0.000000	0.000000	0.000000	0.000000	0.000000	0.000000
0.000000	1.753750	0.000000	0	14	0	0.000000	0.000000	0.000000	0.000000	0.000000	0.000000
0.050833	1.753750	0.000000	1	14	0	0.000000	0.000000	0.000000	300.130005	0.000000	-0.005317
0.152500	1.753750	0.000000	2	14	0	0.000000	0.000000	0.000000	300.130005	0.000000	-0.005273
0.254167	1.753750	0.000000	3	14	0	0.000000	0.000000	0.000000	300.130005	0.000000	-0.003435
0.355833	1.753750	0.000000	4	14	0	0.000000	0.000000	0.000000	300.130005	0.000000	-0.001712
0.457500	1.753750	0.000000	5	14	0	0.000000	0.000000	0.000000	300.130005	0.000000	-0.002553
0.559167	1.753750	0.000000	6	14	0	0.000000	0.000000	0.000000	300.130005	0.000000	-0.001367
0.686250	1.753750	0.000000	7	14	0	0.000000	0.000000	0.000000	300.130005	0.000000	-0.001324
0.838750	1.753750	0.000000	8	14	0	0.000000	0.000000	0.000000	300.130005	0.000000	0.014779
0.991250	1.753750	0.000000	9	14	0	0.000000	0.000000	0.000000	300.130005	0.000000	0.015970
1.143750	1.753750	0.000000	10	14	0	0.000000	0.000000	0.000000	300.130005	0.000000	0.016926
1.296250	1.753750	0.000000	11	14	0	0.000000	0.000000	0.000000	300.130005	0.000000	0.017590
1.448750	1.753750	0.000000	12	14	0	0.000000	0.000000	0.000000	300.130005	0.000000	0.016591
1.601250	1.753750	0.000000	13	14	0	0.000000	0.000000	0.000000	300.130005	0.000000	0.015230
1.753750	1.753750	0.000000	14	14	0	0.000000	0.000000	0.000000	300.130005	0.000000	0.001753
1.880833	1.753750	0.000000	15	14	0	0.000000	0.000000	0.000000	300.130005	0.000000	0.001675
1.982500	1.753750	0.000000	16	14	0	0.000000	0.000000	0.000000	300.130005	0.000000	-0.000252
2.084167	1.753750	0.000000	17	14	0	0.000000	0.000000	0.000000	300.130005	0.000000	0.001222
2.185833	1.753750	0.000000	18	14	0	0.000000	0.000000	0.000000	300.130005	0.000000	-0.001007
2.287500	1.753750	0.000000	19	14	0	0.000000	0.000000	0.000000	300.130005	0.000000	-0.001705
2.389167	1.753750	0.000000	20	14	0	0.000000	0.000000	0.000000	300.130005	0.000000	-0.002594